V -t * -v 1.0a5 -a 0
A -t * -n 1 -p 0 -o 0xffffffff -c 31 -a 1
A -t * -h 1 -m 2147483647 -s 0
c -t * -i 0 -n red
c -t * -i 1 -n blue
n -t * -a 0 -s 0 -S UP -v circle -c black -i black
n -t * -a 1 -s 1 -S UP -v circle -c black -i black
n -t * -a 2 -s 2 -S UP -v circle -c black -i black
n -t * -a 3 -s 3 -S UP -v circle -c black -i black
l -t * -s 0 -d 2 -S UP -r 1000000 -D 0.01 -c black -o right-up
l -t * -s 1 -d 2 -S UP -r 1000000 -D 0.01 -c black -o right-down
l -t * -s 2 -d 3 -S UP -r 1000000 -D 0.01 -c black -o right
q -t * -s 3 -d 2 -a 0.5
q -t * -s 2 -d 3 -a 0.5
+ -t 0.2 -s 0 -d 2 -p cbr -e 40 -c 0 -i 0 -a 0 -x {0.0 3.0 0 ------- null}
- -t 0.2 -s 0 -d 2 -p cbr -e 40 -c 0 -i 0 -a 0 -x {0.0 3.0 0 ------- null}
h -t 0.2 -s 0 -d 2 -p cbr -e 40 -c 0 -i 0 -a 0 -x {0.0 3.0 -1 ------- null}
r -t 0.21032 -s 0 -d 2 -p cbr -e 40 -c 0 -i 0 -a 0 -x {0.0 3.0 0 ------- null}
+ -t 0.21032 -s 2 -d 3 -p cbr -e 40 -c 0 -i 0 -a 0 -x {0.0 3.0 0 ------- null}
- -t 0.21032 -s 2 -d 3 -p cbr -e 40 -c 0 -i 0 -a 0 -x {0.0 3.0 0 ------- null}
h -t 0.21032 -s 2 -d 3 -p cbr -e 40 -c 0 -i 0 -a 0 -x {0.0 3.0 -1 ------- null}
r -t 0.22064 -s 2 -d 3 -p cbr -e 40 -c 0 -i 0 -a 0 -x {0.0 3.0 0 ------- null}
+ -t 0.22064 -s 3 -d 2 -p ack -e 40 -c 0 -i 1 -a 0 -x {3.0 0.0 0 ------- null}
- -t 0.22064 -s 3 -d 2 -p ack -e 40 -c 0 -i 1 -a 0 -x {3.0 0.0 0 ------- null}
h -t 0.22064 -s 3 -d 2 -p ack -e 40 -c 0 -i 1 -a 0 -x {3.0 0.0 -1 ------- null}
r -t 0.23096 -s 3 -d 2 -p ack -e 40 -c 0 -i 1 -a 0 -x {3.0 0.0 0 ------- null}
+ -t 0.23096 -s 2 -d 0 -p ack -e 40 -c 0 -i 1 -a 0 -x {3.0 0.0 0 ------- null}
- -t 0.23096 -s 2 -d 0 -p ack -e 40 -c 0 -i 1 -a 0 -x {3.0 0.0 0 ------- null}
h -t 0.23096 -s 2 -d 0 -p ack -e 40 -c 0 -i 1 -a 0 -x {3.0 0.0 -1 ------- null}
r -t 0.24128 -s 2 -d 0 -p ack -e 40 -c 0 -i 1 -a 0 -x {3.0 0.0 0 ------- null}
+ -t 0.24128 -s 0 -d 2 -p cbr -e 40 -c 0 -i 2 -a 0 -x {0.0 3.0 0 ------- null}
- -t 0.24128 -s 0 -d 2 -p cbr -e 40 -c 0 -i 2 -a 0 -x {0.0 3.0 0 ------- null}
h -t 0.24128 -s 0 -d 2 -p cbr -e 40 -c 0 -i 2 -a 0 -x {0.0 3.0 -1 ------- null}
+ -t 0.24128 -s 0 -d 2 -p cbr -e 576 -c 0 -i 3 -a 0 -x {0.0 3.0 0 ------- null}
+ -t 0.24128 -s 0 -d 2 -p cbr -e 576 -c 0 -i 4 -a 0 -x {0.0 3.0 0 ------- null}
- -t 0.2416 -s 0 -d 2 -p cbr -e 576 -c 0 -i 3 -a 0 -x {0.0 3.0 0 ------- null}
h -t 0.2416 -s 0 -d 2 -p cbr -e 576 -c 0 -i 3 -a 0 -x {0.0 3.0 -1 ------- null}
- -t 0.246208 -s 0 -d 2 -p cbr -e 576 -c 0 -i 4 -a 0 -x {0.0 3.0 0 ------- null}
h -t 0.246208 -s 0 -d 2 -p cbr -e 576 -c 0 -i 4 -a 0 -x {0.0 3.0 -1 ------- null}
r -t 0.2516 -s 0 -d 2 -p cbr -e 40 -c 0 -i 2 -a 0 -x {0.0 3.0 0 ------- null}
+ -t 0.2516 -s 2 -d 3 -p cbr -e 40 -c 0 -i 2 -a 0 -x {0.0 3.0 0 ------- null}
- -t 0.2516 -s 2 -d 3 -p cbr -e 40 -c 0 -i 2 -a 0 -x {0.0 3.0 0 ------- null}
h -t 0.2516 -s 2 -d 3 -p cbr -e 40 -c 0 -i 2 -a 0 -x {0.0 3.0 -1 ------- null}
r -t 0.256208 -s 0 -d 2 -p cbr -e 576 -c 0 -i 3 -a 0 -x {0.0 3.0 0 ------- null}
+ -t 0.256208 -s 2 -d 3 -p cbr -e 576 -c 0 -i 3 -a 0 -x {0.0 3.0 0 ------- null}
- -t 0.256208 -s 2 -d 3 -p cbr -e 576 -c 0 -i 3 -a 0 -x {0.0 3.0 0 ------- null}
h -t 0.256208 -s 2 -d 3 -p cbr -e 576 -c 0 -i 3 -a 0 -x {0.0 3.0 -1 ------- null}
r -t 0.260816 -s 0 -d 2 -p cbr -e 576 -c 0 -i 4 -a 0 -x {0.0 3.0 0 ------- null}
+ -t 0.260816 -s 2 -d 3 -p cbr -e 576 -c 0 -i 4 -a 0 -x {0.0 3.0 0 ------- null}
- -t 0.260816 -s 2 -d 3 -p cbr -e 576 -c 0 -i 4 -a 0 -x {0.0 3.0 0 ------- null}
h -t 0.260816 -s 2 -d 3 -p cbr -e 576 -c 0 -i 4 -a 0 -x {0.0 3.0 -1 ------- null}
r -t 0.26192 -s 2 -d 3 -p cbr -e 40 -c 0 -i 2 -a 0 -x {0.0 3.0 0 ------- null}
r -t 0.270816 -s 2 -d 3 -p cbr -e 576 -c 0 -i 3 -a 0 -x {0.0 3.0 0 ------- null}
+ -t 0.270816 -s 3 -d 2 -p ack -e 40 -c 0 -i 5 -a 0 -x {3.0 0.0 1 ------- null}
- -t 0.270816 -s 3 -d 2 -p ack -e 40 -c 0 -i 5 -a 0 -x {3.0 0.0 1 ------- null}
h -t 0.270816 -s 3 -d 2 -p ack -e 40 -c 0 -i 5 -a 0 -x {3.0 0.0 -1 ------- null}
r -t 0.275424 -s 2 -d 3 -p cbr -e 576 -c 0 -i 4 -a 0 -x {0.0 3.0 0 ------- null}
+ -t 0.275424 -s 3 -d 2 -p ack -e 40 -c 0 -i 6 -a 0 -x {3.0 0.0 1 ------- null}
- -t 0.275424 -s 3 -d 2 -p ack -e 40 -c 0 -i 6 -a 0 -x {3.0 0.0 1 ------- null}
h -t 0.275424 -s 3 -d 2 -p ack -e 40 -c 0 -i 6 -a 0 -x {3.0 0.0 -1 ------- null}
r -t 0.281136 -s 3 -d 2 -p ack -e 40 -c 0 -i 5 -a 0 -x {3.0 0.0 1 ------- null}
+ -t 0.281136 -s 2 -d 0 -p ack -e 40 -c 0 -i 5 -a 0 -x {3.0 0.0 1 ------- null}
- -t 0.281136 -s 2 -d 0 -p ack -e 40 -c 0 -i 5 -a 0 -x {3.0 0.0 1 ------- null}
h -t 0.281136 -s 2 -d 0 -p ack -e 40 -c 0 -i 5 -a 0 -x {3.0 0.0 -1 ------- null}
r -t 0.285744 -s 3 -d 2 -p ack -e 40 -c 0 -i 6 -a 0 -x {3.0 0.0 1 ------- null}
+ -t 0.285744 -s 2 -d 0 -p ack -e 40 -c 0 -i 6 -a 0 -x {3.0 0.0 1 ------- null}
- -t 0.285744 -s 2 -d 0 -p ack -e 40 -c 0 -i 6 -a 0 -x {3.0 0.0 1 ------- null}
h -t 0.285744 -s 2 -d 0 -p ack -e 40 -c 0 -i 6 -a 0 -x {3.0 0.0 -1 ------- null}
r -t 0.291456 -s 2 -d 0 -p ack -e 40 -c 0 -i 5 -a 0 -x {3.0 0.0 1 ------- null}
+ -t 0.291456 -s 0 -d 2 -p cbr -e 576 -c 0 -i 7 -a 0 -x {0.0 3.0 0 ------- null}
- -t 0.291456 -s 0 -d 2 -p cbr -e 576 -c 0 -i 7 -a 0 -x {0.0 3.0 0 ------- null}
h -t 0.291456 -s 0 -d 2 -p cbr -e 576 -c 0 -i 7 -a 0 -x {0.0 3.0 -1 ------- null}
+ -t 0.291456 -s 0 -d 2 -p cbr -e 576 -c 0 -i 8 -a 0 -x {0.0 3.0 0 ------- null}
r -t 0.296064 -s 2 -d 0 -p ack -e 40 -c 0 -i 6 -a 0 -x {3.0 0.0 1 ------- null}
+ -t 0.296064 -s 0 -d 2 -p cbr -e 576 -c 0 -i 9 -a 0 -x {0.0 3.0 0 ------- null}
+ -t 0.296064 -s 0 -d 2 -p cbr -e 576 -c 0 -i 10 -a 0 -x {0.0 3.0 0 ------- null}
- -t 0.296064 -s 0 -d 2 -p cbr -e 576 -c 0 -i 8 -a 0 -x {0.0 3.0 0 ------- null}
h -t 0.296064 -s 0 -d 2 -p cbr -e 576 -c 0 -i 8 -a 0 -x {0.0 3.0 -1 ------- null}
- -t 0.300672 -s 0 -d 2 -p cbr -e 576 -c 0 -i 9 -a 0 -x {0.0 3.0 0 ------- null}
h -t 0.300672 -s 0 -d 2 -p cbr -e 576 -c 0 -i 9 -a 0 -x {0.0 3.0 -1 ------- null}
- -t 0.30528 -s 0 -d 2 -p cbr -e 576 -c 0 -i 10 -a 0 -x {0.0 3.0 0 ------- null}
h -t 0.30528 -s 0 -d 2 -p cbr -e 576 -c 0 -i 10 -a 0 -x {0.0 3.0 -1 ------- null}
r -t 0.306064 -s 0 -d 2 -p cbr -e 576 -c 0 -i 7 -a 0 -x {0.0 3.0 0 ------- null}
+ -t 0.306064 -s 2 -d 3 -p cbr -e 576 -c 0 -i 7 -a 0 -x {0.0 3.0 0 ------- null}
- -t 0.306064 -s 2 -d 3 -p cbr -e 576 -c 0 -i 7 -a 0 -x {0.0 3.0 0 ------- null}
h -t 0.306064 -s 2 -d 3 -p cbr -e 576 -c 0 -i 7 -a 0 -x {0.0 3.0 -1 ------- null}
r -t 0.310672 -s 0 -d 2 -p cbr -e 576 -c 0 -i 8 -a 0 -x {0.0 3.0 0 ------- null}
+ -t 0.310672 -s 2 -d 3 -p cbr -e 576 -c 0 -i 8 -a 0 -x {0.0 3.0 0 ------- null}
- -t 0.310672 -s 2 -d 3 -p cbr -e 576 -c 0 -i 8 -a 0 -x {0.0 3.0 0 ------- null}
h -t 0.310672 -s 2 -d 3 -p cbr -e 576 -c 0 -i 8 -a 0 -x {0.0 3.0 -1 ------- null}
r -t 0.31528 -s 0 -d 2 -p cbr -e 576 -c 0 -i 9 -a 0 -x {0.0 3.0 0 ------- null}
+ -t 0.31528 -s 2 -d 3 -p cbr -e 576 -c 0 -i 9 -a 0 -x {0.0 3.0 0 ------- null}
- -t 0.31528 -s 2 -d 3 -p cbr -e 576 -c 0 -i 9 -a 0 -x {0.0 3.0 0 ------- null}
h -t 0.31528 -s 2 -d 3 -p cbr -e 576 -c 0 -i 9 -a 0 -x {0.0 3.0 -1 ------- null}
r -t 0.319888 -s 0 -d 2 -p cbr -e 576 -c 0 -i 10 -a 0 -x {0.0 3.0 0 ------- null}
+ -t 0.319888 -s 2 -d 3 -p cbr -e 576 -c 0 -i 10 -a 0 -x {0.0 3.0 0 ------- null}
- -t 0.319888 -s 2 -d 3 -p cbr -e 576 -c 0 -i 10 -a 0 -x {0.0 3.0 0 ------- null}
h -t 0.319888 -s 2 -d 3 -p cbr -e 576 -c 0 -i 10 -a 0 -x {0.0 3.0 -1 ------- null}
r -t 0.320672 -s 2 -d 3 -p cbr -e 576 -c 0 -i 7 -a 0 -x {0.0 3.0 0 ------- null}
+ -t 0.320672 -s 3 -d 2 -p ack -e 40 -c 0 -i 11 -a 0 -x {3.0 0.0 1 ------- null}
- -t 0.320672 -s 3 -d 2 -p ack -e 40 -c 0 -i 11 -a 0 -x {3.0 0.0 1 ------- null}
h -t 0.320672 -s 3 -d 2 -p ack -e 40 -c 0 -i 11 -a 0 -x {3.0 0.0 -1 ------- null}
r -t 0.32528 -s 2 -d 3 -p cbr -e 576 -c 0 -i 8 -a 0 -x {0.0 3.0 0 ------- null}
+ -t 0.32528 -s 3 -d 2 -p ack -e 40 -c 0 -i 12 -a 0 -x {3.0 0.0 1 ------- null}
- -t 0.32528 -s 3 -d 2 -p ack -e 40 -c 0 -i 12 -a 0 -x {3.0 0.0 1 ------- null}
h -t 0.32528 -s 3 -d 2 -p ack -e 40 -c 0 -i 12 -a 0 -x {3.0 0.0 -1 ------- null}
r -t 0.329888 -s 2 -d 3 -p cbr -e 576 -c 0 -i 9 -a 0 -x {0.0 3.0 0 ------- null}
+ -t 0.329888 -s 3 -d 2 -p ack -e 40 -c 0 -i 13 -a 0 -x {3.0 0.0 1 ------- null}
- -t 0.329888 -s 3 -d 2 -p ack -e 40 -c 0 -i 13 -a 0 -x {3.0 0.0 1 ------- null}
h -t 0.329888 -s 3 -d 2 -p ack -e 40 -c 0 -i 13 -a 0 -x {3.0 0.0 -1 ------- null}
r -t 0.330992 -s 3 -d 2 -p ack -e 40 -c 0 -i 11 -a 0 -x {3.0 0.0 1 ------- null}
+ -t 0.330992 -s 2 -d 0 -p ack -e 40 -c 0 -i 11 -a 0 -x {3.0 0.0 1 ------- null}
- -t 0.330992 -s 2 -d 0 -p ack -e 40 -c 0 -i 11 -a 0 -x {3.0 0.0 1 ------- null}
h -t 0.330992 -s 2 -d 0 -p ack -e 40 -c 0 -i 11 -a 0 -x {3.0 0.0 -1 ------- null}
r -t 0.334496 -s 2 -d 3 -p cbr -e 576 -c 0 -i 10 -a 0 -x {0.0 3.0 0 ------- null}
+ -t 0.334496 -s 3 -d 2 -p ack -e 40 -c 0 -i 14 -a 0 -x {3.0 0.0 1 ------- null}
- -t 0.334496 -s 3 -d 2 -p ack -e 40 -c 0 -i 14 -a 0 -x {3.0 0.0 1 ------- null}
h -t 0.334496 -s 3 -d 2 -p ack -e 40 -c 0 -i 14 -a 0 -x {3.0 0.0 -1 ------- null}
r -t 0.3356 -s 3 -d 2 -p ack -e 40 -c 0 -i 12 -a 0 -x {3.0 0.0 1 ------- null}
+ -t 0.3356 -s 2 -d 0 -p ack -e 40 -c 0 -i 12 -a 0 -x {3.0 0.0 1 ------- null}
- -t 0.3356 -s 2 -d 0 -p ack -e 40 -c 0 -i 12 -a 0 -x {3.0 0.0 1 ------- null}
h -t 0.3356 -s 2 -d 0 -p ack -e 40 -c 0 -i 12 -a 0 -x {3.0 0.0 -1 ------- null}
r -t 0.340208 -s 3 -d 2 -p ack -e 40 -c 0 -i 13 -a 0 -x {3.0 0.0 1 ------- null}
+ -t 0.340208 -s 2 -d 0 -p ack -e 40 -c 0 -i 13 -a 0 -x {3.0 0.0 1 ------- null}
- -t 0.340208 -s 2 -d 0 -p ack -e 40 -c 0 -i 13 -a 0 -x {3.0 0.0 1 ------- null}
h -t 0.340208 -s 2 -d 0 -p ack -e 40 -c 0 -i 13 -a 0 -x {3.0 0.0 -1 ------- null}
r -t 0.341312 -s 2 -d 0 -p ack -e 40 -c 0 -i 11 -a 0 -x {3.0 0.0 1 ------- null}
+ -t 0.341312 -s 0 -d 2 -p cbr -e 576 -c 0 -i 15 -a 0 -x {0.0 3.0 0 ------- null}
- -t 0.341312 -s 0 -d 2 -p cbr -e 576 -c 0 -i 15 -a 0 -x {0.0 3.0 0 ------- null}
h -t 0.341312 -s 0 -d 2 -p cbr -e 576 -c 0 -i 15 -a 0 -x {0.0 3.0 -1 ------- null}
+ -t 0.341312 -s 0 -d 2 -p cbr -e 576 -c 0 -i 16 -a 0 -x {0.0 3.0 0 ------- null}
r -t 0.344816 -s 3 -d 2 -p ack -e 40 -c 0 -i 14 -a 0 -x {3.0 0.0 1 ------- null}
+ -t 0.344816 -s 2 -d 0 -p ack -e 40 -c 0 -i 14 -a 0 -x {3.0 0.0 1 ------- null}
- -t 0.344816 -s 2 -d 0 -p ack -e 40 -c 0 -i 14 -a 0 -x {3.0 0.0 1 ------- null}
h -t 0.344816 -s 2 -d 0 -p ack -e 40 -c 0 -i 14 -a 0 -x {3.0 0.0 -1 ------- null}
r -t 0.34592 -s 2 -d 0 -p ack -e 40 -c 0 -i 12 -a 0 -x {3.0 0.0 1 ------- null}
+ -t 0.34592 -s 0 -d 2 -p cbr -e 576 -c 0 -i 17 -a 0 -x {0.0 3.0 0 ------- null}
+ -t 0.34592 -s 0 -d 2 -p cbr -e 576 -c 0 -i 18 -a 0 -x {0.0 3.0 0 ------- null}
- -t 0.34592 -s 0 -d 2 -p cbr -e 576 -c 0 -i 16 -a 0 -x {0.0 3.0 0 ------- null}
h -t 0.34592 -s 0 -d 2 -p cbr -e 576 -c 0 -i 16 -a 0 -x {0.0 3.0 -1 ------- null}
r -t 0.350528 -s 2 -d 0 -p ack -e 40 -c 0 -i 13 -a 0 -x {3.0 0.0 1 ------- null}
+ -t 0.350528 -s 0 -d 2 -p cbr -e 576 -c 0 -i 19 -a 0 -x {0.0 3.0 0 ------- null}
+ -t 0.350528 -s 0 -d 2 -p cbr -e 576 -c 0 -i 20 -a 0 -x {0.0 3.0 0 ------- null}
- -t 0.350528 -s 0 -d 2 -p cbr -e 576 -c 0 -i 17 -a 0 -x {0.0 3.0 0 ------- null}
h -t 0.350528 -s 0 -d 2 -p cbr -e 576 -c 0 -i 17 -a 0 -x {0.0 3.0 -1 ------- null}
r -t 0.355136 -s 2 -d 0 -p ack -e 40 -c 0 -i 14 -a 0 -x {3.0 0.0 1 ------- null}
+ -t 0.355136 -s 0 -d 2 -p cbr -e 576 -c 0 -i 21 -a 0 -x {0.0 3.0 0 ------- null}
+ -t 0.355136 -s 0 -d 2 -p cbr -e 576 -c 0 -i 22 -a 0 -x {0.0 3.0 0 ------- null}
- -t 0.355136 -s 0 -d 2 -p cbr -e 576 -c 0 -i 18 -a 0 -x {0.0 3.0 0 ------- null}
h -t 0.355136 -s 0 -d 2 -p cbr -e 576 -c 0 -i 18 -a 0 -x {0.0 3.0 -1 ------- null}
r -t 0.35592 -s 0 -d 2 -p cbr -e 576 -c 0 -i 15 -a 0 -x {0.0 3.0 0 ------- null}
+ -t 0.35592 -s 2 -d 3 -p cbr -e 576 -c 0 -i 15 -a 0 -x {0.0 3.0 0 ------- null}
- -t 0.35592 -s 2 -d 3 -p cbr -e 576 -c 0 -i 15 -a 0 -x {0.0 3.0 0 ------- null}
h -t 0.35592 -s 2 -d 3 -p cbr -e 576 -c 0 -i 15 -a 0 -x {0.0 3.0 -1 ------- null}
- -t 0.359744 -s 0 -d 2 -p cbr -e 576 -c 0 -i 19 -a 0 -x {0.0 3.0 0 ------- null}
h -t 0.359744 -s 0 -d 2 -p cbr -e 576 -c 0 -i 19 -a 0 -x {0.0 3.0 -1 ------- null}
r -t 0.360528 -s 0 -d 2 -p cbr -e 576 -c 0 -i 16 -a 0 -x {0.0 3.0 0 ------- null}
+ -t 0.360528 -s 2 -d 3 -p cbr -e 576 -c 0 -i 16 -a 0 -x {0.0 3.0 0 ------- null}
- -t 0.360528 -s 2 -d 3 -p cbr -e 576 -c 0 -i 16 -a 0 -x {0.0 3.0 0 ------- null}
h -t 0.360528 -s 2 -d 3 -p cbr -e 576 -c 0 -i 16 -a 0 -x {0.0 3.0 -1 ------- null}
- -t 0.364352 -s 0 -d 2 -p cbr -e 576 -c 0 -i 20 -a 0 -x {0.0 3.0 0 ------- null}
h -t 0.364352 -s 0 -d 2 -p cbr -e 576 -c 0 -i 20 -a 0 -x {0.0 3.0 -1 ------- null}
r -t 0.365136 -s 0 -d 2 -p cbr -e 576 -c 0 -i 17 -a 0 -x {0.0 3.0 0 ------- null}
+ -t 0.365136 -s 2 -d 3 -p cbr -e 576 -c 0 -i 17 -a 0 -x {0.0 3.0 0 ------- null}
- -t 0.365136 -s 2 -d 3 -p cbr -e 576 -c 0 -i 17 -a 0 -x {0.0 3.0 0 ------- null}
h -t 0.365136 -s 2 -d 3 -p cbr -e 576 -c 0 -i 17 -a 0 -x {0.0 3.0 -1 ------- null}
- -t 0.36896 -s 0 -d 2 -p cbr -e 576 -c 0 -i 21 -a 0 -x {0.0 3.0 0 ------- null}
h -t 0.36896 -s 0 -d 2 -p cbr -e 576 -c 0 -i 21 -a 0 -x {0.0 3.0 -1 ------- null}
r -t 0.369744 -s 0 -d 2 -p cbr -e 576 -c 0 -i 18 -a 0 -x {0.0 3.0 0 ------- null}
+ -t 0.369744 -s 2 -d 3 -p cbr -e 576 -c 0 -i 18 -a 0 -x {0.0 3.0 0 ------- null}
- -t 0.369744 -s 2 -d 3 -p cbr -e 576 -c 0 -i 18 -a 0 -x {0.0 3.0 0 ------- null}
h -t 0.369744 -s 2 -d 3 -p cbr -e 576 -c 0 -i 18 -a 0 -x {0.0 3.0 -1 ------- null}
r -t 0.370528 -s 2 -d 3 -p cbr -e 576 -c 0 -i 15 -a 0 -x {0.0 3.0 0 ------- null}
+ -t 0.370528 -s 3 -d 2 -p ack -e 40 -c 0 -i 23 -a 0 -x {3.0 0.0 1 ------- null}
- -t 0.370528 -s 3 -d 2 -p ack -e 40 -c 0 -i 23 -a 0 -x {3.0 0.0 1 ------- null}
h -t 0.370528 -s 3 -d 2 -p ack -e 40 -c 0 -i 23 -a 0 -x {3.0 0.0 -1 ------- null}
- -t 0.373568 -s 0 -d 2 -p cbr -e 576 -c 0 -i 22 -a 0 -x {0.0 3.0 0 ------- null}
h -t 0.373568 -s 0 -d 2 -p cbr -e 576 -c 0 -i 22 -a 0 -x {0.0 3.0 -1 ------- null}
r -t 0.374352 -s 0 -d 2 -p cbr -e 576 -c 0 -i 19 -a 0 -x {0.0 3.0 0 ------- null}
+ -t 0.374352 -s 2 -d 3 -p cbr -e 576 -c 0 -i 19 -a 0 -x {0.0 3.0 0 ------- null}
- -t 0.374352 -s 2 -d 3 -p cbr -e 576 -c 0 -i 19 -a 0 -x {0.0 3.0 0 ------- null}
h -t 0.374352 -s 2 -d 3 -p cbr -e 576 -c 0 -i 19 -a 0 -x {0.0 3.0 -1 ------- null}
r -t 0.375136 -s 2 -d 3 -p cbr -e 576 -c 0 -i 16 -a 0 -x {0.0 3.0 0 ------- null}
+ -t 0.375136 -s 3 -d 2 -p ack -e 40 -c 0 -i 24 -a 0 -x {3.0 0.0 1 ------- null}
- -t 0.375136 -s 3 -d 2 -p ack -e 40 -c 0 -i 24 -a 0 -x {3.0 0.0 1 ------- null}
h -t 0.375136 -s 3 -d 2 -p ack -e 40 -c 0 -i 24 -a 0 -x {3.0 0.0 -1 ------- null}
r -t 0.37896 -s 0 -d 2 -p cbr -e 576 -c 0 -i 20 -a 0 -x {0.0 3.0 0 ------- null}
+ -t 0.37896 -s 2 -d 3 -p cbr -e 576 -c 0 -i 20 -a 0 -x {0.0 3.0 0 ------- null}
- -t 0.37896 -s 2 -d 3 -p cbr -e 576 -c 0 -i 20 -a 0 -x {0.0 3.0 0 ------- null}
h -t 0.37896 -s 2 -d 3 -p cbr -e 576 -c 0 -i 20 -a 0 -x {0.0 3.0 -1 ------- null}
r -t 0.379744 -s 2 -d 3 -p cbr -e 576 -c 0 -i 17 -a 0 -x {0.0 3.0 0 ------- null}
+ -t 0.379744 -s 3 -d 2 -p ack -e 40 -c 0 -i 25 -a 0 -x {3.0 0.0 1 ------- null}
- -t 0.379744 -s 3 -d 2 -p ack -e 40 -c 0 -i 25 -a 0 -x {3.0 0.0 1 ------- null}
h -t 0.379744 -s 3 -d 2 -p ack -e 40 -c 0 -i 25 -a 0 -x {3.0 0.0 -1 ------- null}
r -t 0.380848 -s 3 -d 2 -p ack -e 40 -c 0 -i 23 -a 0 -x {3.0 0.0 1 ------- null}
+ -t 0.380848 -s 2 -d 0 -p ack -e 40 -c 0 -i 23 -a 0 -x {3.0 0.0 1 ------- null}
- -t 0.380848 -s 2 -d 0 -p ack -e 40 -c 0 -i 23 -a 0 -x {3.0 0.0 1 ------- null}
h -t 0.380848 -s 2 -d 0 -p ack -e 40 -c 0 -i 23 -a 0 -x {3.0 0.0 -1 ------- null}
r -t 0.383568 -s 0 -d 2 -p cbr -e 576 -c 0 -i 21 -a 0 -x {0.0 3.0 0 ------- null}
+ -t 0.383568 -s 2 -d 3 -p cbr -e 576 -c 0 -i 21 -a 0 -x {0.0 3.0 0 ------- null}
- -t 0.383568 -s 2 -d 3 -p cbr -e 576 -c 0 -i 21 -a 0 -x {0.0 3.0 0 ------- null}
h -t 0.383568 -s 2 -d 3 -p cbr -e 576 -c 0 -i 21 -a 0 -x {0.0 3.0 -1 ------- null}
r -t 0.384352 -s 2 -d 3 -p cbr -e 576 -c 0 -i 18 -a 0 -x {0.0 3.0 0 ------- null}
+ -t 0.384352 -s 3 -d 2 -p ack -e 40 -c 0 -i 26 -a 0 -x {3.0 0.0 1 ------- null}
- -t 0.384352 -s 3 -d 2 -p ack -e 40 -c 0 -i 26 -a 0 -x {3.0 0.0 1 ------- null}
h -t 0.384352 -s 3 -d 2 -p ack -e 40 -c 0 -i 26 -a 0 -x {3.0 0.0 -1 ------- null}
r -t 0.385456 -s 3 -d 2 -p ack -e 40 -c 0 -i 24 -a 0 -x {3.0 0.0 1 ------- null}
+ -t 0.385456 -s 2 -d 0 -p ack -e 40 -c 0 -i 24 -a 0 -x {3.0 0.0 1 ------- null}
- -t 0.385456 -s 2 -d 0 -p ack -e 40 -c 0 -i 24 -a 0 -x {3.0 0.0 1 ------- null}
h -t 0.385456 -s 2 -d 0 -p ack -e 40 -c 0 -i 24 -a 0 -x {3.0 0.0 -1 ------- null}
r -t 0.388176 -s 0 -d 2 -p cbr -e 576 -c 0 -i 22 -a 0 -x {0.0 3.0 0 ------- null}
+ -t 0.388176 -s 2 -d 3 -p cbr -e 576 -c 0 -i 22 -a 0 -x {0.0 3.0 0 ------- null}
- -t 0.388176 -s 2 -d 3 -p cbr -e 576 -c 0 -i 22 -a 0 -x {0.0 3.0 0 ------- null}
h -t 0.388176 -s 2 -d 3 -p cbr -e 576 -c 0 -i 22 -a 0 -x {0.0 3.0 -1 ------- null}
r -t 0.38896 -s 2 -d 3 -p cbr -e 576 -c 0 -i 19 -a 0 -x {0.0 3.0 0 ------- null}
+ -t 0.38896 -s 3 -d 2 -p ack -e 40 -c 0 -i 27 -a 0 -x {3.0 0.0 1 ------- null}
- -t 0.38896 -s 3 -d 2 -p ack -e 40 -c 0 -i 27 -a 0 -x {3.0 0.0 1 ------- null}
h -t 0.38896 -s 3 -d 2 -p ack -e 40 -c 0 -i 27 -a 0 -x {3.0 0.0 -1 ------- null}
r -t 0.390064 -s 3 -d 2 -p ack -e 40 -c 0 -i 25 -a 0 -x {3.0 0.0 1 ------- null}
+ -t 0.390064 -s 2 -d 0 -p ack -e 40 -c 0 -i 25 -a 0 -x {3.0 0.0 1 ------- null}
- -t 0.390064 -s 2 -d 0 -p ack -e 40 -c 0 -i 25 -a 0 -x {3.0 0.0 1 ------- null}
h -t 0.390064 -s 2 -d 0 -p ack -e 40 -c 0 -i 25 -a 0 -x {3.0 0.0 -1 ------- null}
r -t 0.391168 -s 2 -d 0 -p ack -e 40 -c 0 -i 23 -a 0 -x {3.0 0.0 1 ------- null}
+ -t 0.391168 -s 0 -d 2 -p cbr -e 576 -c 0 -i 28 -a 0 -x {0.0 3.0 0 ------- null}
- -t 0.391168 -s 0 -d 2 -p cbr -e 576 -c 0 -i 28 -a 0 -x {0.0 3.0 0 ------- null}
h -t 0.391168 -s 0 -d 2 -p cbr -e 576 -c 0 -i 28 -a 0 -x {0.0 3.0 -1 ------- null}
+ -t 0.391168 -s 0 -d 2 -p cbr -e 576 -c 0 -i 29 -a 0 -x {0.0 3.0 0 ------- null}
r -t 0.393568 -s 2 -d 3 -p cbr -e 576 -c 0 -i 20 -a 0 -x {0.0 3.0 0 ------- null}
+ -t 0.393568 -s 3 -d 2 -p ack -e 40 -c 0 -i 30 -a 0 -x {3.0 0.0 1 ------- null}
- -t 0.393568 -s 3 -d 2 -p ack -e 40 -c 0 -i 30 -a 0 -x {3.0 0.0 1 ------- null}
h -t 0.393568 -s 3 -d 2 -p ack -e 40 -c 0 -i 30 -a 0 -x {3.0 0.0 -1 ------- null}
r -t 0.394672 -s 3 -d 2 -p ack -e 40 -c 0 -i 26 -a 0 -x {3.0 0.0 1 ------- null}
+ -t 0.394672 -s 2 -d 0 -p ack -e 40 -c 0 -i 26 -a 0 -x {3.0 0.0 1 ------- null}
- -t 0.394672 -s 2 -d 0 -p ack -e 40 -c 0 -i 26 -a 0 -x {3.0 0.0 1 ------- null}
h -t 0.394672 -s 2 -d 0 -p ack -e 40 -c 0 -i 26 -a 0 -x {3.0 0.0 -1 ------- null}
r -t 0.395776 -s 2 -d 0 -p ack -e 40 -c 0 -i 24 -a 0 -x {3.0 0.0 1 ------- null}
+ -t 0.395776 -s 0 -d 2 -p cbr -e 576 -c 0 -i 31 -a 0 -x {0.0 3.0 0 ------- null}
+ -t 0.395776 -s 0 -d 2 -p cbr -e 576 -c 0 -i 32 -a 0 -x {0.0 3.0 0 ------- null}
- -t 0.395776 -s 0 -d 2 -p cbr -e 576 -c 0 -i 29 -a 0 -x {0.0 3.0 0 ------- null}
h -t 0.395776 -s 0 -d 2 -p cbr -e 576 -c 0 -i 29 -a 0 -x {0.0 3.0 -1 ------- null}
r -t 0.398176 -s 2 -d 3 -p cbr -e 576 -c 0 -i 21 -a 0 -x {0.0 3.0 0 ------- null}
+ -t 0.398176 -s 3 -d 2 -p ack -e 40 -c 0 -i 33 -a 0 -x {3.0 0.0 1 ------- null}
- -t 0.398176 -s 3 -d 2 -p ack -e 40 -c 0 -i 33 -a 0 -x {3.0 0.0 1 ------- null}
h -t 0.398176 -s 3 -d 2 -p ack -e 40 -c 0 -i 33 -a 0 -x {3.0 0.0 -1 ------- null}
r -t 0.39928 -s 3 -d 2 -p ack -e 40 -c 0 -i 27 -a 0 -x {3.0 0.0 1 ------- null}
+ -t 0.39928 -s 2 -d 0 -p ack -e 40 -c 0 -i 27 -a 0 -x {3.0 0.0 1 ------- null}
- -t 0.39928 -s 2 -d 0 -p ack -e 40 -c 0 -i 27 -a 0 -x {3.0 0.0 1 ------- null}
h -t 0.39928 -s 2 -d 0 -p ack -e 40 -c 0 -i 27 -a 0 -x {3.0 0.0 -1 ------- null}
+ -t 0.4 -s 1 -d 2 -p cbr -e 40 -c 1 -i 34 -a 1 -x {1.0 3.1 0 ------- null}
- -t 0.4 -s 1 -d 2 -p cbr -e 40 -c 1 -i 34 -a 1 -x {1.0 3.1 0 ------- null}
h -t 0.4 -s 1 -d 2 -p cbr -e 40 -c 1 -i 34 -a 1 -x {1.0 3.1 -1 ------- null}
r -t 0.400384 -s 2 -d 0 -p ack -e 40 -c 0 -i 25 -a 0 -x {3.0 0.0 1 ------- null}
+ -t 0.400384 -s 0 -d 2 -p cbr -e 576 -c 0 -i 35 -a 0 -x {0.0 3.0 0 ------- null}
+ -t 0.400384 -s 0 -d 2 -p cbr -e 576 -c 0 -i 36 -a 0 -x {0.0 3.0 0 ------- null}
- -t 0.400384 -s 0 -d 2 -p cbr -e 576 -c 0 -i 31 -a 0 -x {0.0 3.0 0 ------- null}
h -t 0.400384 -s 0 -d 2 -p cbr -e 576 -c 0 -i 31 -a 0 -x {0.0 3.0 -1 ------- null}
r -t 0.402784 -s 2 -d 3 -p cbr -e 576 -c 0 -i 22 -a 0 -x {0.0 3.0 0 ------- null}
+ -t 0.402784 -s 3 -d 2 -p ack -e 40 -c 0 -i 37 -a 0 -x {3.0 0.0 1 ------- null}
- -t 0.402784 -s 3 -d 2 -p ack -e 40 -c 0 -i 37 -a 0 -x {3.0 0.0 1 ------- null}
h -t 0.402784 -s 3 -d 2 -p ack -e 40 -c 0 -i 37 -a 0 -x {3.0 0.0 -1 ------- null}
r -t 0.403888 -s 3 -d 2 -p ack -e 40 -c 0 -i 30 -a 0 -x {3.0 0.0 1 ------- null}
+ -t 0.403888 -s 2 -d 0 -p ack -e 40 -c 0 -i 30 -a 0 -x {3.0 0.0 1 ------- null}
- -t 0.403888 -s 2 -d 0 -p ack -e 40 -c 0 -i 30 -a 0 -x {3.0 0.0 1 ------- null}
h -t 0.403888 -s 2 -d 0 -p ack -e 40 -c 0 -i 30 -a 0 -x {3.0 0.0 -1 ------- null}
r -t 0.404992 -s 2 -d 0 -p ack -e 40 -c 0 -i 26 -a 0 -x {3.0 0.0 1 ------- null}
+ -t 0.404992 -s 0 -d 2 -p cbr -e 576 -c 0 -i 38 -a 0 -x {0.0 3.0 0 ------- null}
+ -t 0.404992 -s 0 -d 2 -p cbr -e 576 -c 0 -i 39 -a 0 -x {0.0 3.0 0 ------- null}
- -t 0.404992 -s 0 -d 2 -p cbr -e 576 -c 0 -i 32 -a 0 -x {0.0 3.0 0 ------- null}
h -t 0.404992 -s 0 -d 2 -p cbr -e 576 -c 0 -i 32 -a 0 -x {0.0 3.0 -1 ------- null}
r -t 0.405776 -s 0 -d 2 -p cbr -e 576 -c 0 -i 28 -a 0 -x {0.0 3.0 0 ------- null}
+ -t 0.405776 -s 2 -d 3 -p cbr -e 576 -c 0 -i 28 -a 0 -x {0.0 3.0 0 ------- null}
- -t 0.405776 -s 2 -d 3 -p cbr -e 576 -c 0 -i 28 -a 0 -x {0.0 3.0 0 ------- null}
h -t 0.405776 -s 2 -d 3 -p cbr -e 576 -c 0 -i 28 -a 0 -x {0.0 3.0 -1 ------- null}
r -t 0.408496 -s 3 -d 2 -p ack -e 40 -c 0 -i 33 -a 0 -x {3.0 0.0 1 ------- null}
+ -t 0.408496 -s 2 -d 0 -p ack -e 40 -c 0 -i 33 -a 0 -x {3.0 0.0 1 ------- null}
- -t 0.408496 -s 2 -d 0 -p ack -e 40 -c 0 -i 33 -a 0 -x {3.0 0.0 1 ------- null}
h -t 0.408496 -s 2 -d 0 -p ack -e 40 -c 0 -i 33 -a 0 -x {3.0 0.0 -1 ------- null}
r -t 0.4096 -s 2 -d 0 -p ack -e 40 -c 0 -i 27 -a 0 -x {3.0 0.0 1 ------- null}
- -t 0.4096 -s 0 -d 2 -p cbr -e 576 -c 0 -i 35 -a 0 -x {0.0 3.0 0 ------- null}
h -t 0.4096 -s 0 -d 2 -p cbr -e 576 -c 0 -i 35 -a 0 -x {0.0 3.0 -1 ------- null}
r -t 0.41032 -s 1 -d 2 -p cbr -e 40 -c 1 -i 34 -a 1 -x {1.0 3.1 0 ------- null}
+ -t 0.41032 -s 2 -d 3 -p cbr -e 40 -c 1 -i 34 -a 1 -x {1.0 3.1 0 ------- null}
r -t 0.410384 -s 0 -d 2 -p cbr -e 576 -c 0 -i 29 -a 0 -x {0.0 3.0 0 ------- null}
+ -t 0.410384 -s 2 -d 3 -p cbr -e 576 -c 0 -i 29 -a 0 -x {0.0 3.0 0 ------- null}
- -t 0.410384 -s 2 -d 3 -p cbr -e 40 -c 1 -i 34 -a 1 -x {1.0 3.1 0 ------- null}
h -t 0.410384 -s 2 -d 3 -p cbr -e 40 -c 1 -i 34 -a 1 -x {1.0 3.1 -1 ------- null}
- -t 0.410704 -s 2 -d 3 -p cbr -e 576 -c 0 -i 29 -a 0 -x {0.0 3.0 0 ------- null}
h -t 0.410704 -s 2 -d 3 -p cbr -e 576 -c 0 -i 29 -a 0 -x {0.0 3.0 -1 ------- null}
r -t 0.413104 -s 3 -d 2 -p ack -e 40 -c 0 -i 37 -a 0 -x {3.0 0.0 1 ------- null}
+ -t 0.413104 -s 2 -d 0 -p ack -e 40 -c 0 -i 37 -a 0 -x {3.0 0.0 1 ------- null}
- -t 0.413104 -s 2 -d 0 -p ack -e 40 -c 0 -i 37 -a 0 -x {3.0 0.0 1 ------- null}
h -t 0.413104 -s 2 -d 0 -p ack -e 40 -c 0 -i 37 -a 0 -x {3.0 0.0 -1 ------- null}
r -t 0.414208 -s 2 -d 0 -p ack -e 40 -c 0 -i 30 -a 0 -x {3.0 0.0 1 ------- null}
- -t 0.414208 -s 0 -d 2 -p cbr -e 576 -c 0 -i 36 -a 0 -x {0.0 3.0 0 ------- null}
h -t 0.414208 -s 0 -d 2 -p cbr -e 576 -c 0 -i 36 -a 0 -x {0.0 3.0 -1 ------- null}
r -t 0.414992 -s 0 -d 2 -p cbr -e 576 -c 0 -i 31 -a 0 -x {0.0 3.0 0 ------- null}
+ -t 0.414992 -s 2 -d 3 -p cbr -e 576 -c 0 -i 31 -a 0 -x {0.0 3.0 0 ------- null}
- -t 0.415312 -s 2 -d 3 -p cbr -e 576 -c 0 -i 31 -a 0 -x {0.0 3.0 0 ------- null}
h -t 0.415312 -s 2 -d 3 -p cbr -e 576 -c 0 -i 31 -a 0 -x {0.0 3.0 -1 ------- null}
r -t 0.418816 -s 2 -d 0 -p ack -e 40 -c 0 -i 33 -a 0 -x {3.0 0.0 1 ------- null}
- -t 0.418816 -s 0 -d 2 -p cbr -e 576 -c 0 -i 38 -a 0 -x {0.0 3.0 0 ------- null}
h -t 0.418816 -s 0 -d 2 -p cbr -e 576 -c 0 -i 38 -a 0 -x {0.0 3.0 -1 ------- null}
+ -t 0.419428571428572 -s 0 -d 2 -p cbr -e 576 -c 0 -i 40 -a 0 -x {0.0 3.0 0 ------- null}
+ -t 0.419428571428572 -s 0 -d 2 -p cbr -e 576 -c 0 -i 41 -a 0 -x {0.0 3.0 0 ------- null}
r -t 0.4196 -s 0 -d 2 -p cbr -e 576 -c 0 -i 32 -a 0 -x {0.0 3.0 0 ------- null}
+ -t 0.4196 -s 2 -d 3 -p cbr -e 576 -c 0 -i 32 -a 0 -x {0.0 3.0 0 ------- null}
- -t 0.41992 -s 2 -d 3 -p cbr -e 576 -c 0 -i 32 -a 0 -x {0.0 3.0 0 ------- null}
h -t 0.41992 -s 2 -d 3 -p cbr -e 576 -c 0 -i 32 -a 0 -x {0.0 3.0 -1 ------- null}
r -t 0.420384 -s 2 -d 3 -p cbr -e 576 -c 0 -i 28 -a 0 -x {0.0 3.0 0 ------- null}
+ -t 0.420384 -s 3 -d 2 -p ack -e 40 -c 0 -i 42 -a 0 -x {3.0 0.0 1 ------- null}
- -t 0.420384 -s 3 -d 2 -p ack -e 40 -c 0 -i 42 -a 0 -x {3.0 0.0 1 ------- null}
h -t 0.420384 -s 3 -d 2 -p ack -e 40 -c 0 -i 42 -a 0 -x {3.0 0.0 -1 ------- null}
r -t 0.420704 -s 2 -d 3 -p cbr -e 40 -c 1 -i 34 -a 1 -x {1.0 3.1 0 ------- null}
+ -t 0.420704 -s 3 -d 2 -p ack -e 40 -c 1 -i 43 -a 1 -x {3.1 1.0 0 ------- null}
- -t 0.420704 -s 3 -d 2 -p ack -e 40 -c 1 -i 43 -a 1 -x {3.1 1.0 0 ------- null}
h -t 0.420704 -s 3 -d 2 -p ack -e 40 -c 1 -i 43 -a 1 -x {3.1 1.0 -1 ------- null}
r -t 0.423424 -s 2 -d 0 -p ack -e 40 -c 0 -i 37 -a 0 -x {3.0 0.0 1 ------- null}
- -t 0.423424 -s 0 -d 2 -p cbr -e 576 -c 0 -i 39 -a 0 -x {0.0 3.0 0 ------- null}
h -t 0.423424 -s 0 -d 2 -p cbr -e 576 -c 0 -i 39 -a 0 -x {0.0 3.0 -1 ------- null}
r -t 0.424208 -s 0 -d 2 -p cbr -e 576 -c 0 -i 35 -a 0 -x {0.0 3.0 0 ------- null}
+ -t 0.424208 -s 2 -d 3 -p cbr -e 576 -c 0 -i 35 -a 0 -x {0.0 3.0 0 ------- null}
- -t 0.424528 -s 2 -d 3 -p cbr -e 576 -c 0 -i 35 -a 0 -x {0.0 3.0 0 ------- null}
h -t 0.424528 -s 2 -d 3 -p cbr -e 576 -c 0 -i 35 -a 0 -x {0.0 3.0 -1 ------- null}
r -t 0.425312 -s 2 -d 3 -p cbr -e 576 -c 0 -i 29 -a 0 -x {0.0 3.0 0 ------- null}
+ -t 0.425312 -s 3 -d 2 -p ack -e 40 -c 0 -i 44 -a 0 -x {3.0 0.0 1 ------- null}
- -t 0.425312 -s 3 -d 2 -p ack -e 40 -c 0 -i 44 -a 0 -x {3.0 0.0 1 ------- null}
h -t 0.425312 -s 3 -d 2 -p ack -e 40 -c 0 -i 44 -a 0 -x {3.0 0.0 -1 ------- null}
- -t 0.428032 -s 0 -d 2 -p cbr -e 576 -c 0 -i 40 -a 0 -x {0.0 3.0 0 ------- null}
h -t 0.428032 -s 0 -d 2 -p cbr -e 576 -c 0 -i 40 -a 0 -x {0.0 3.0 -1 ------- null}
r -t 0.428816 -s 0 -d 2 -p cbr -e 576 -c 0 -i 36 -a 0 -x {0.0 3.0 0 ------- null}
+ -t 0.428816 -s 2 -d 3 -p cbr -e 576 -c 0 -i 36 -a 0 -x {0.0 3.0 0 ------- null}
- -t 0.429136 -s 2 -d 3 -p cbr -e 576 -c 0 -i 36 -a 0 -x {0.0 3.0 0 ------- null}
h -t 0.429136 -s 2 -d 3 -p cbr -e 576 -c 0 -i 36 -a 0 -x {0.0 3.0 -1 ------- null}
r -t 0.42992 -s 2 -d 3 -p cbr -e 576 -c 0 -i 31 -a 0 -x {0.0 3.0 0 ------- null}
+ -t 0.42992 -s 3 -d 2 -p ack -e 40 -c 0 -i 45 -a 0 -x {3.0 0.0 1 ------- null}
- -t 0.42992 -s 3 -d 2 -p ack -e 40 -c 0 -i 45 -a 0 -x {3.0 0.0 1 ------- null}
h -t 0.42992 -s 3 -d 2 -p ack -e 40 -c 0 -i 45 -a 0 -x {3.0 0.0 -1 ------- null}
r -t 0.430704 -s 3 -d 2 -p ack -e 40 -c 0 -i 42 -a 0 -x {3.0 0.0 1 ------- null}
+ -t 0.430704 -s 2 -d 0 -p ack -e 40 -c 0 -i 42 -a 0 -x {3.0 0.0 1 ------- null}
- -t 0.430704 -s 2 -d 0 -p ack -e 40 -c 0 -i 42 -a 0 -x {3.0 0.0 1 ------- null}
h -t 0.430704 -s 2 -d 0 -p ack -e 40 -c 0 -i 42 -a 0 -x {3.0 0.0 -1 ------- null}
r -t 0.431024 -s 3 -d 2 -p ack -e 40 -c 1 -i 43 -a 1 -x {3.1 1.0 0 ------- null}
+ -t 0.431024 -s 2 -d 1 -p ack -e 40 -c 1 -i 43 -a 1 -x {3.1 1.0 0 ------- null}
- -t 0.431024 -s 2 -d 1 -p ack -e 40 -c 1 -i 43 -a 1 -x {3.1 1.0 0 ------- null}
h -t 0.431024 -s 2 -d 1 -p ack -e 40 -c 1 -i 43 -a 1 -x {3.1 1.0 -1 ------- null}
- -t 0.43264 -s 0 -d 2 -p cbr -e 576 -c 0 -i 41 -a 0 -x {0.0 3.0 0 ------- null}
h -t 0.43264 -s 0 -d 2 -p cbr -e 576 -c 0 -i 41 -a 0 -x {0.0 3.0 -1 ------- null}
r -t 0.433424 -s 0 -d 2 -p cbr -e 576 -c 0 -i 38 -a 0 -x {0.0 3.0 0 ------- null}
+ -t 0.433424 -s 2 -d 3 -p cbr -e 576 -c 0 -i 38 -a 0 -x {0.0 3.0 0 ------- null}
- -t 0.433744 -s 2 -d 3 -p cbr -e 576 -c 0 -i 38 -a 0 -x {0.0 3.0 0 ------- null}
h -t 0.433744 -s 2 -d 3 -p cbr -e 576 -c 0 -i 38 -a 0 -x {0.0 3.0 -1 ------- null}
r -t 0.434528 -s 2 -d 3 -p cbr -e 576 -c 0 -i 32 -a 0 -x {0.0 3.0 0 ------- null}
+ -t 0.434528 -s 3 -d 2 -p ack -e 40 -c 0 -i 46 -a 0 -x {3.0 0.0 1 ------- null}
- -t 0.434528 -s 3 -d 2 -p ack -e 40 -c 0 -i 46 -a 0 -x {3.0 0.0 1 ------- null}
h -t 0.434528 -s 3 -d 2 -p ack -e 40 -c 0 -i 46 -a 0 -x {3.0 0.0 -1 ------- null}
r -t 0.435632 -s 3 -d 2 -p ack -e 40 -c 0 -i 44 -a 0 -x {3.0 0.0 1 ------- null}
+ -t 0.435632 -s 2 -d 0 -p ack -e 40 -c 0 -i 44 -a 0 -x {3.0 0.0 1 ------- null}
- -t 0.435632 -s 2 -d 0 -p ack -e 40 -c 0 -i 44 -a 0 -x {3.0 0.0 1 ------- null}
h -t 0.435632 -s 2 -d 0 -p ack -e 40 -c 0 -i 44 -a 0 -x {3.0 0.0 -1 ------- null}
+ -t 0.437714285714286 -s 0 -d 2 -p cbr -e 576 -c 0 -i 47 -a 0 -x {0.0 3.0 0 ------- null}
- -t 0.437714285714286 -s 0 -d 2 -p cbr -e 576 -c 0 -i 47 -a 0 -x {0.0 3.0 0 ------- null}
h -t 0.437714285714286 -s 0 -d 2 -p cbr -e 576 -c 0 -i 47 -a 0 -x {0.0 3.0 -1 ------- null}
+ -t 0.437714285714286 -s 0 -d 2 -p cbr -e 576 -c 0 -i 48 -a 0 -x {0.0 3.0 0 ------- null}
r -t 0.438032 -s 0 -d 2 -p cbr -e 576 -c 0 -i 39 -a 0 -x {0.0 3.0 0 ------- null}
+ -t 0.438032 -s 2 -d 3 -p cbr -e 576 -c 0 -i 39 -a 0 -x {0.0 3.0 0 ------- null}
- -t 0.438352 -s 2 -d 3 -p cbr -e 576 -c 0 -i 39 -a 0 -x {0.0 3.0 0 ------- null}
h -t 0.438352 -s 2 -d 3 -p cbr -e 576 -c 0 -i 39 -a 0 -x {0.0 3.0 -1 ------- null}
r -t 0.439136 -s 2 -d 3 -p cbr -e 576 -c 0 -i 35 -a 0 -x {0.0 3.0 0 ------- null}
+ -t 0.439136 -s 3 -d 2 -p ack -e 40 -c 0 -i 49 -a 0 -x {3.0 0.0 1 ------- null}
- -t 0.439136 -s 3 -d 2 -p ack -e 40 -c 0 -i 49 -a 0 -x {3.0 0.0 1 ------- null}
h -t 0.439136 -s 3 -d 2 -p ack -e 40 -c 0 -i 49 -a 0 -x {3.0 0.0 -1 ------- null}
r -t 0.44024 -s 3 -d 2 -p ack -e 40 -c 0 -i 45 -a 0 -x {3.0 0.0 1 ------- null}
+ -t 0.44024 -s 2 -d 0 -p ack -e 40 -c 0 -i 45 -a 0 -x {3.0 0.0 1 ------- null}
- -t 0.44024 -s 2 -d 0 -p ack -e 40 -c 0 -i 45 -a 0 -x {3.0 0.0 1 ------- null}
h -t 0.44024 -s 2 -d 0 -p ack -e 40 -c 0 -i 45 -a 0 -x {3.0 0.0 -1 ------- null}